# vtk DataFile Version 3.0
vtk output
ASCII
DATASET POLYDATA
POINTS 10000 float
-12.939175 -3.323222 23.991515
-12.939175 -3.323222 23.991515
-12.939175 -3.323222 23.991515
-12.939175 -3.323222 23.991515
-12.939175 -3.323222 23.991515
-12.939175 -3.323222 23.991515
-12.939175 -3.323222 23.991515
-12.939175 -3.323222 23.991515
-12.939175 -3.323222 23.991515
-12.939175 -3.323222 23.991515
-12.939175 -3.323222 23.991515
-12.939175 -3.323222 23.991515
-12.939175 -3.323222 23.991515
-12.939175 -3.323222 23.991515
-12.939175 -3.323222 23.991515
-12.939175 -3.323222 23.991515
-12.939175 -3.323222 23.991515
-12.939175 -3.323222 23.991515
-12.939175 -3.323222 23.991515
-12.939175 -3.323222 23.991515
-12.939175 -3.323222 23.991515
-12.939175 -3.323222 23.991515
-12.939175 -3.323222 23.991515
-12.939175 -3.323222 23.991515
-12.939175 -3.323222 23.991515
-12.939175 -3.323222 23.991515
-12.939175 -3.323222 23.991515
-12.939175 -3.323222 23.991515
-12.939175 -3.323222 23.991515
-12.939175 -3.323222 23.991515
-12.939175 -3.323222 23.991515
-12.939175 -3.323222 23.991515
-12.939175 -3.323222 23.991515
-12.939175 -3.323222 23.991515
-12.939175 -3.323222 23.991515
-12.939175 -3.323222 23.991515
-12.939175 -3.323222 23.991515
-12.939175 -3.323222 23.991515
-12.939175 -3.323222 23.991515
-12.939175 -3.323222 23.991515
-12.939175 -3.323222 23.991515
-12.939175 -3.323222 23.991515
-12.939175 -3.323222 23.991515
-12.939175 -3.323222 23.991515
-12.939175 -3.323222 23.991515
-12.939175 -3.323222 23.991515
-12.939175 -3.323222 23.991515
-12.939175 -3.323222 23.991515
-12.939175 -3.323222 23.991515
-12.939175 -3.323222 23.991515
-12.939175 -3.323222 23.991515
-12.939175 -3.323222 23.991515
-12.939175 -3.323222 23.991515
-12.939175 -3.323222 23.991515
-12.939175 -3.323222 23.991515
-12.939175 -3.323222 23.991515
-12.939175 -3.323222 23.991515
-12.939175 -3.323222 23.991515
-12.939175 -3.323222 23.991515
-12.939175 -3.323222 23.991515
-12.939175 -3.323222 23.991515
-12.939175 -3.323222 23.991515
-12.939175 -3.323222 23.991515
-12.939175 -3.323222 23.991515
-12.939175 -3.323222 23.991515
-12.939175 -3.323222 23.991515
-12.939175 -3.323222 23.991515
-12.939175 -3.323222 23.991515
-12.939175 -3.323222 23.991515
-12.939175 -3.323222 23.991515
-12.939175 -3.323222 23.991515
-12.939175 -3.323222 23.991515
-12.939175 -3.323222 23.991515
-12.939175 -3.323222 23.991515
-12.939175 -3.323222 23.991515
-12.939175 -3.323222 23.991515
-12.939175 -3.323222 23.991515
-12.939175 -3.323222 23.991515
-12.939175 -3.323222 23.991515
-12.939175 -3.323222 23.991515
-12.939175 -3.323222 23.991515
-12.939175 -3.323222 23.991515
-12.939175 -3.323222 23.991515
-12.939175 -3.323222 23.991515
-12.939175 -3.323222 23.991515
-12.939175 -3.323222 23.991515
-12.939175 -3.323222 23.991515
-12.939175 -3.323222 23.991515
-12.939175 -3.323222 23.991515
-12.939175 -3.323222 23.991515
-12.939175 -3.323222 23.991515
-12.939175 -3.323222 23.991515
-12.939175 -3.323222 23.991515
-12.939175 -3.323222 23.991515
-12.939175 -3.323222 23.991515
-12.939175 -3.323222 23.991515
-12.939175 -3.323222 23.991515
-12.939175 -3.323222 23.991515
-12.939175 -3.323222 23.991515
-12.939175 -3.323222 23.991515
-12.978174 -3.558124 24.157770
-12.947597 -3.558097 24.157221
-12.917000 -3.557142 24.155988
-12.886508 -3.555258 24.154073
-12.856242 -3.552448 24.151480
-12.826327 -3.548719 24.148215
-12.796883 -3.544084 24.144289
-12.768030 -3.538559 24.139711
-12.739886 -3.532167 24.134497
-12.712567 -3.524932 24.128662
-12.686182 -3.516886 24.122224
-12.660841 -3.508063 24.115205
-12.636647 -3.498503 24.107627
-12.613700 -3.488247 24.099516
-12.592092 -3.477344 24.090900
-12.571915 -3.465841 24.081810
-12.553249 -3.453794 24.072278
-12.536171 -3.441257 24.062339
-12.520753 -3.428289 24.052030
-12.507056 -3.414950 24.041391
-12.495137 -3.401303 24.030463
-12.485044 -3.387410 24.019289
-12.476819 -3.373335 24.007915
-12.470494 -3.359144 23.996386
-12.466094 -3.344900 23.984751
-12.463636 -3.330669 23.973058
-12.463129 -3.316512 23.961358
-12.464574 -3.302494 23.949702
-12.467963 -3.288674 23.938139
-12.473280 -3.275112 23.926721
-12.480503 -3.261866 23.915499
-12.489599 -3.248989 23.904522
-12.500529 -3.236534 23.893840
-12.513248 -3.224550 23.883502
-12.527700 -3.213085 23.873552
-12.543826 -3.202180 23.864037
-12.561558 -3.191876 23.854999
-12.580822 -3.182211 23.846478
-12.601540 -3.173216 23.838512
-12.623626 -3.164923 23.831137
-12.646989 -3.157357 23.824384
-12.671536 -3.150543 23.818284
-12.697167 -3.144499 23.812861
-12.723778 -3.139242 23.808139
-12.751263 -3.134785 23.804138
-12.779512 -3.131139 23.800872
-12.808413 -3.128311 23.798355
-12.837850 -3.126304 23.796596
-12.867707 -3.125121 23.795601
-12.897867 -3.124760 23.795372
-12.928208 -3.125216 23.795908
-12.958613 -3.126484 23.797205
-12.988960 -3.128553 23.799254
-13.019131 -3.131413 23.802046
-13.049005 -3.135051 23.805567
-13.078464 -3.139449 23.809799
-13.107392 -3.144591 23.814722
-13.135673 -3.150455 23.820314
-13.163196 -3.157021 23.826549
-13.189849 -3.164263 23.833399
-13.215527 -3.172156 23.840834
-13.240126 -3.180671 23.848820
-13.263548 -3.189779 23.857322
-13.285697 -3.199449 23.866303
-13.306485 -3.209646 23.875724
-13.325826 -3.220336 23.885543
-13.343643 -3.231481 23.895719
-13.359862 -3.243044 23.906208
-13.374417 -3.254984 23.916965
-13.387249 -3.267260 23.927946
-13.398306 -3.279828 23.939103
-13.407542 -3.292645 23.950391
-13.414918 -3.305665 23.961764
-13.420406 -3.318841 23.973175
-13.423982 -3.332125 23.984579
-13.425631 -3.345469 23.995930
-13.425346 -3.358824 24.007183
-13.423129 -3.372139 24.018295
-13.418987 -3.385364 24.029224
-13.412938 -3.398449 24.039928
-13.405006 -3.411343 24.050368
-13.395222 -3.423995 24.060504
-13.383625 -3.436354 24.070300
-13.370262 -3.448370 24.079721
-13.355186 -3.459995 24.088733
-13.338457 -3.471180 24.097304
-13.320142 -3.481876 24.105405
-13.300314 -3.492039 24.113008
-13.279052 -3.501622 24.120086
-13.256440 -3.510583 24.126615
-13.232570 -3.518880 24.132572
-13.207537 -3.526475 24.137938
-13.181439 -3.533331 24.142694
-13.154382 -3.539412 24.146823
-13.126474 -3.544689 24.150311
-13.097826 -3.549133 24.153145
-13.068554 -3.552718 24.155316
-13.038774 -3.555423 24.156814
-13.008607 -3.557230 24.157633
-12.978174 -3.558124 24.157770
-13.027966 -3.823198 24.298170
-12.967104 -3.823881 24.297206
-12.906185 -3.822631 24.294944
-12.845454 -3.819428 24.291382
-12.785157 -3.814265 24.286526
-12.725540 -3.807143 24.280381
-12.666844 -3.798076 24.272958
-12.609311 -3.787092 24.264271
-12.553174 -3.774228 24.254336
-12.498666 -3.759536 24.243176
-12.446011 -3.743079 24.230814
-12.395427 -3.724933 24.217280
-12.347125 -3.705183 24.202607
-12.301305 -3.683928 24.186834
-12.258161 -3.661275 24.170002
-12.217872 -3.637341 24.152161
-12.180611 -3.612252 24.133362
-12.146533 -3.586141 24.113665
-12.115784 -3.559146 24.093135
-12.088495 -3.531410 24.071842
-12.064782 -3.503080 24.049865
-12.044744 -3.474307 24.027287
-12.028467 -3.445241 24.004198
-12.016019 -3.416031 23.980693
-12.007451 -3.386828 23.956874
-12.002795 -3.357777 23.932847
-12.002068 -3.329021 23.908724
-12.005269 -3.300698 23.884620
-12.012378 -3.272941 23.860651
-12.023358 -3.245875 23.836937
-12.038155 -3.219618 23.813598
-12.056698 -3.194282 23.790752
-12.078900 -3.169969 23.768517
-12.104659 -3.146771 23.747008
-12.133857 -3.124772 23.726333
-12.166364 -3.104048 23.706597
-12.202034 -3.084664 23.687899
-12.240712 -3.066677 23.670329
-12.282231 -3.050133 23.653970
-12.326414 -3.035071 23.638896
-12.373076 -3.021521 23.625175
-12.422023 -3.009506 23.612861
-12.473057 -2.999042 23.602005
-12.525972 -2.990136 23.592645
-12.580557 -2.982792 23.584812
-12.636599 -2.977007 23.578528
-12.693881 -2.972774 23.573811
-12.752182 -2.970079 23.570667
-12.811281 -2.968909 23.569100
-12.870954 -2.969244 23.569104
-12.930976 -2.971064 23.570670
-12.991120 -2.974343 23.573782
-13.051161 -2.979057 23.578421
-13.110869 -2.985177 23.584560
-13.170020 -2.992674 23.592170
-13.228384 -3.001517 23.601215
-13.285737 -3.011673 23.611654
-13.341854 -3.023107 23.623443
-13.396511 -3.035782 23.636530
-13.449491 -3.049661 23.650859
-13.500576 -3.064704 23.666367
-13.549557 -3.080866 23.682987
-13.596229 -3.098105 23.700645
-13.640396 -3.116371 23.719262
-13.681870 -3.135614 23.738755
-13.720473 -3.155780 23.759035
-13.756040 -3.176813 23.780009
-13.788417 -3.198650 23.801580
-13.817465 -3.221229 23.823651
-13.843058 -3.244481 23.846119
-13.865088 -3.268335 23.868884
-13.883462 -3.292715 23.891842
-13.898103 -3.317543 23.914894
-13.908953 -3.342737 23.937938
-13.915969 -3.368212 23.960879
-13.919127 -3.393880 23.983621
-13.918419 -3.419650 24.006075
-13.913853 -3.445430 24.028153
-13.905452 -3.471125 24.049774
-13.893257 -3.496639 24.070861
-13.877322 -3.521876 24.091340
-13.857715 -3.546737 24.111143
-13.834520 -3.571126 24.130208
-13.807832 -3.594943 24.148476
-13.777759 -3.618092 24.165891
-13.744422 -3.640475 24.182404
-13.707954 -3.661996 24.197967
-13.668497 -3.682560 24.212538
-13.626208 -3.702074 24.226075
-13.581250 -3.720445 24.238542
-13.533801 -3.737585 24.249905
-13.484045 -3.753405 24.260132
-13.432177 -3.767821 24.269194
-13.378400 -3.780753 24.277065
-13.322925 -3.792123 24.283723
-13.265972 -3.801858 24.289145
-13.207766 -3.809891 24.293315
-13.148539 -3.816160 24.296217
-13.088525 -3.820612 24.297838
-13.027966 -3.823198 24.298170
-13.085841 -4.113035 24.419408
-12.995416 -4.115011 24.417878
-12.904906 -4.114009 24.414459
-12.814678 -4.109971 24.409150
-12.725097 -4.102857 24.401957
-12.636524 -4.092648 24.392887
-12.549318 -4.079349 24.381955
-12.463833 -4.062984 24.369176
-12.380416 -4.043606 24.354572
-12.299405 -4.021289 24.338165
-12.221133 -3.996132 24.319984
-12.145922 -3.968258 24.300059
-12.074084 -3.937812 24.278426
-12.005921 -3.904960 24.255122
-11.941719 -3.869889 24.230194
-11.881754 -3.832802 24.203691
-11.826284 -3.793917 24.175673
-11.775553 -3.753465 24.146205
-11.729783 -3.711687 24.115365
-11.689179 -3.668833 24.083242
[...]
POINT_DATA 10000
SCALARS Radius_New float 1 
LOOKUP_TABLE default
0.000000
0.000000
0.000000
0.000000
0.000000
0.000000
0.000000
0.000000
0.000000
0.000000
0.000000
0.000000
0.000000
0.000000
0.000000
0.000000
0.000000
0.000000
0.000000
0.000000
0.000000
0.000000
0.000000
0.000000
0.000000
0.000000
0.000000
0.000000
0.000000
0.000000
0.000000
0.000000
0.000000
0.000000
0.000000
0.000000
0.000000
0.000000
0.000000
0.000000
0.000000
0.000000
0.000000
0.000000
0.000000
0.000000
0.000000
0.000000
0.000000
0.000000
0.000000
0.000000
0.000000
0.000000
0.000000
0.000000
0.000000
0.000000
0.000000
0.000000
0.000000
0.000000
0.000000
0.000000
0.000000
0.000000
0.000000
0.000000
0.000000
0.000000
0.000000
0.000000
0.000000
0.000000
0.000000
0.000000
0.000000
0.000000
0.000000
0.000000
0.000000
0.000000
0.000000
0.000000
0.000000
0.000000
0.000000
0.000000
0.000000
0.000000
0.000000
0.000000
0.000000
0.000000
0.000000
0.000000
0.000000
0.000000
0.000000
0.000000
0.282426
0.280149
0.280054
0.282144
0.286336
0.292473
0.300341
0.309688
0.320242
0.331728
0.343882
0.356452
0.369209
0.381942
0.394463
0.406604
0.418215
0.429164
0.439335
0.448626
0.456950
0.464230
0.470404
0.475419
0.479234
0.481818
0.483149
0.483218
0.482024
0.479576
0.475893
0.471006
0.464954
0.457790
0.449575
0.440385
0.430308
0.419445
0.407913
0.395845
0.383392
0.370723
0.358028
0.345519
0.333427
0.322005
0.311520
0.302246
0.294456
0.288400
0.284293
0.282287
0.282463
0.284817
0.289259
0.295628
0.303705
0.313234
0.323941
0.335548
0.347786
0.360401
0.373159
0.385848
0.398273
0.410265
0.421669
0.432351
0.442192
0.451089
0.458954
0.465711
0.471298
0.475666
0.478775
0.480600
0.481125
0.480347
0.478271
0.474917
0.470313
0.464500
0.457530
0.449467
0.440388
0.430383
0.419556
0.408025
0.395927
0.383413
0.370656
0.357846
0.345198
0.332944
0.321337
0.310646
0.301147
0.293114
0.286801
0.282426
0.563564
0.559755
0.560243
0.564998
0.573830
0.586412
0.602312
0.621032
0.642044
0.664819
0.688846
0.713647
0.738780
0.763846
0.788483
0.812369
0.835216
0.856768
0.876801
0.895115
0.911538
0.925919
0.938133
0.948074
0.955657
0.960817
0.963509
0.963708
0.961407
0.956620
0.949381
0.939744
0.927782
0.913591
0.897292
0.879025
0.858960
0.837292
0.814247
0.790081
0.765088
0.739599
0.713986
0.688663
0.664092
0.640772
0.619241
0.600057
0.583778
0.570929
0.561969
0.557240
0.556940
0.561091
0.569543
0.581988
0.597992
0.617039
0.638568
0.662006
0.686797
0.712414
0.738366
0.764209
0.789538
0.813994
0.837254
0.859037
0.879092
0.897206
0.913195
0.926903
0.938206
0.947003
0.953223
0.956815
0.957757
0.956048
0.951710
0.944790
0.935354
0.923495
0.909326
0.892986
0.874637
0.854470
0.832700
0.809574
0.785373
0.760409
0.735034
0.709639
0.684655
0.660554
0.637841
0.617049
0.598723
0.583390
0.571537
0.563564
0.841147
0.836538
0.838207
0.846054
0.859760
0.878820
0.902592
0.930353
0.961350
0.994831
1.030079
1.066420
1.103236
1.139964
1.176092
1.211160
1.244755
1.276506
1.306081
1.333185
1.357558
1.378972
1.397231
1.412170
1.423654
1.431575
1.435856
1.436448
1.433332
1.426514
1.416031
1.401952
1.384373
1.363424
1.339269
1.312108
1.282179
1.249764
1.215188
1.178830
1.141119
1.102547
1.063666
1.025100
0.987538
0.951740
0.918522
0.888744
0.863271
0.842934
0.828468
0.820442
0.819203
0.824833
0.837135
0.855661
0.879758
0.908635
0.941424
0.977235
1.015194
1.054472
1.094297
1.133963
1.172829
1.210320
1.245928
1.279201
1.309750
1.337238
1.361385
1.381959
1.398778
1.411707
1.420653
1.425567
1.426438
1.423291
1.416187
1.405219
1.390513
1.372226
1.350546
1.325693
1.297924
1.267528
1.234837
1.200225
1.164116
1.126983
1.089357
1.051829
1.015050
0.979725
0.946613
0.916502
0.890185
0.868422
0.851895
0.841147
1.113871
1.109189
1.112551
1.123747
1.142303
1.167530
1.198598
1.234595
1.274589
1.317666
1.362954
1.409644
1.456983
1.504285
1.550920
1.596309
1.639927
1.681291
1.719962
1.755545
1.787685
1.816067
1.840419
1.860506
1.876134
1.887147
1.893428
1.894894
1.891499
1.883232
1.870117
1.852215
1.829624
1.802484
1.770980
1.735346
1.695871
1.652903
1.606859
1.558229
1.507581
1.455572
1.402951
1.350564
1.299358
1.250374
1.204743
1.163658
1.128330
1.099932
1.079512
1.067900
1.065616
1.072811
1.089244
1.114314
1.147125
1.186585
1.231485
1.280584
1.332659
1.386543
1.441146
1.495466
1.548592
1.599704
1.648075
1.693067
1.734132
1.770810
1.802724
1.829581
1.851168
1.867345
1.878040
1.883246
1.883009
1.877428
1.866642
1.850830
1.830204
1.805005
1.775508
1.742018
1.704874
1.664457
1.621194
1.575569
1.528127
1.479486
1.430345
1.381484
1.333766
1.288134
1.245588
1.207164
1.173890
1.146728
1.126510
1.113871
1.381036
1.376987
1.382469
1.397110
1.420247
1.451010
1.488403
1.531375
1.578883
1.629923
1.683550
1.738883
1.795103
1.851445
1.907194
1.961676
2.014258
2.064349
2.111398
2.154898
2.194393
2.229474
2.259788
2.285031
2.304953
2.319350
2.328065
2.330982
2.328022
2.319139
2.304323
2.283599
2.257028
2.224717
2.186826
2.143577
2.095266
2.042275
1.985085
1.924285
1.860583
1.794815
1.727954
1.661109
1.595529
1.532597
1.473811
1.420758
1.375051
1.338253
1.311763
1.296691
1.293739
1.303109
1.324486
1.357073
1.399692
1.450900
1.509113
1.572699
1.640051
1.709631
1.779994
1.849804
1.917840
1.983001
2.044310
2.100918
2.152105
2.197284
2.235998
2.267920
2.292847
2.310689
2.321462
2.325271
2.322298
2.312783
2.297011
2.275298
2.247981
2.215412
2.177954
2.135985
2.089904
2.040143
1.987180
1.931558
1.873900
1.814927
1.755472
1.696486
1.639036
1.584295
1.533513
1.487972
1.448921
1.417500
1.394650
1.381036
1.641982
1.639189
1.647116
1.665161
1.692441
1.727895
1.770389
1.818788
1.872011
1.929050
1.988971
2.050903
2.114021
2.177533
2.240666
2.302666
2.362796
2.420348
2.474649
2.525077
2.571068
2.612126
2.647824
2.677810
2.701797
2.719560
2.730923
2.735749
2.733931
2.725383
2.710037
2.687841
2.658768
2.622827
2.580078
2.530656
2.474794
2.412843
2.345300
2.272827
2.196265
2.116648
2.035209
1.953378
1.872782
1.795225
1.722664
1.657158
1.600801
1.555602
1.523350
1.505440
1.502729
1.515423
1.543061
1.584582
1.638453
1.702832
1.775715
1.855052
1.938822
2.025088
2.112023
2.197922
2.281221
2.360503
2.434510
2.502158
2.562544
2.614957
2.658881
2.693996
2.720167
2.737433
2.745984
2.746137
2.738306
2.722972
2.700647
2.671857
2.637112
2.596894
2.551654
2.501815
2.447785
2.389978
2.328845
2.264905
2.198780
2.131222
2.063147
1.995640
1.929958
1.867510
1.809806
1.758393
1.714751
1.680186
1.655716
1.641982
1.895463
1.894370
1.904923
1.926234
1.957154
1.996423
2.042783
2.095065
2.152217
2.213305
2.277482
2.343955
2.411948
2.480674
2.549319
2.617048
2.683016
2.746385
2.806353
2.862181
2.913209
2.958873
2.998712
3.032365
3.059559
3.080098
3.093833
3.100647
3.100428
3.093055
3.078384
3.056251
3.026477
2.988889
2.943356
2.889820
2.828344
2.759159
2.682699
2.599647
2.510953
2.417859
2.321898
2.224892
2.128932
2.036349
1.949668
1.871535
1.804609
1.751417
1.714164
1.694522
1.693443
1.711047
1.746625
1.798746
1.865444
1.944420
2.033216
2.129341
2.230357
2.333915
2.437792
2.539899
2.638305
2.731252
2.817179
2.894747
2.962866
3.020709
3.067727
3.103652
3.128488
3.142486
3.146115
3.140015
3.124949
3.101746
3.071251
3.034274
2.991551
2.943719
2.891307
2.834737
2.774356
2.710465
2.643376
2.573466
2.501237
2.427377
2.352799
2.278672
2.206424
2.137704
2.074317
2.018113
1.970843
1.934003
1.908683
1.895463
2.139219
2.139955
2.153125
2.177498
2.211619
2.254003
2.303276
2.358259
2.417973
2.481608
2.548454
2.617833
2.689038
2.761293
2.833736
2.905436
2.975417
3.042703
3.106363
3.165553
3.219549
3.267767
3.309769
3.345254
3.374041
3.396032
3.411179
3.419444
3.420756
3.414987
3.401921
3.381255
3.352606
3.315544
3.269635
3.214512
3.149941
3.075902
2.992661
2.900835
2.801434
2.695893
2.586074
2.474252
2.363078
2.255526
2.154812
2.064287
1.987286
1.926923
1.885842
1.865957
1.868232
1.892576
1.937896
2.002276
2.083228
2.177946
2.283496
2.396950
2.515458
2.636279
2.756803
2.874564
2.987264
3.092797
3.189293
3.275155
3.349101
3.410203
3.457906
3.492039
3.512806
3.520755
3.516728
3.501801
3.477198
3.444211
3.404114
3.358085
3.307143
3.252101
3.193554
3.131878
3.067273
2.999815
2.929543
2.856545
2.781062
2.703574
2.624887
2.546177
2.469004
2.395270
2.327119
2.266778
2.216350
2.177591
2.151705
2.139219
2.369974
2.372221
2.387741
2.414927
2.451974
2.497139
2.548917
2.606114
2.667830
2.733385
2.802205
2.873718
2.947258
3.022025
3.097070
3.171325
3.243662
3.312958
3.378167
3.438378
3.492858
3.541071
3.582682
3.617534
3.645618
3.667020
3.681872
3.690286
3.692302
3.687836
3.676639
3.658284
3.632167
3.597547
3.553607
3.499550
3.434708
3.358663
3.271369
3.173255
3.065300
2.949087
2.826802
2.701215
2.575618
2.453736
2.339603
2.237399
2.151238
2.084891
2.041456
2.023038
2.030502
2.063406
2.120129
2.198145
2.294369
2.405445
2.527962
2.658575
2.794056
2.931313
3.067393
3.199489
3.324966
3.441394
3.546608
3.638762
3.716398
3.778496
3.824517
3.854420
3.868656
3.868128
3.854130
3.828251
3.792270
3.748033
3.697328
3.641776
3.582731
3.521213
3.457876
3.393014
3.326604
3.258393
3.188006
3.115085
3.039436
2.961175
2.880850
2.799536
2.718867
2.640994
2.568455
2.503959
2.450091
2.408999
2.382113
2.369974
2.583981
2.586858
2.604139
2.633825
2.673728
2.721809
2.776387
2.836218
2.900442
2.968461
3.039779
3.113852
3.189979
3.267247
3.344544
3.420612
3.494141
3.563867
3.628664
3.687615
3.740057
3.785588
3.824058
3.855535
3.880249
3.898533
3.910760
3.917263
3.918265
3.913813
3.903710
3.887479
3.864348
3.833279
3.793040
3.742321
3.679892
3.604783
3.516465
3.415017
3.301257
3.176816
3.044164
2.906574
2.768028
2.633088
2.506710
2.394016
2.299994
2.229124
2.184964
2.169743
2.184115
2.227142
2.296536
2.389063
2.500970
2.628333
2.767274
2.914067
3.065167
3.217198
3.366938
3.511313
3.647414
3.772544
3.884283
3.980568
4.059782
4.120831
4.163204
4.187006
4.192952
4.182326
4.156901
4.118819
4.070455
4.014255
3.952575
3.887525
3.820842
3.753786
3.687092
3.620961
3.555112
3.488882
3.421373
3.351632
3.278855
3.202602
3.122987
3.040833
2.957748
2.876104
2.798883
2.729398
2.670897
2.626123
2.596917
2.583981
2.778038
2.780035
2.798096
2.829848
2.872697
2.924260
2.982628
3.046434
3.114778
3.187045
3.262697
3.341085
3.421327
3.502270
3.582525
3.660576
3.734905
3.804128
3.867102
3.922993
3.971305
4.011864
4.044780
4.070390
4.089191
4.101773
4.108762
4.110742
4.108188
4.101380
4.090314
4.074619
4.053504
4.025748
3.989756
3.943690
3.885673
3.814033
3.727577
3.625843
3.509308
3.379517
3.239132
3.091887
2.942468
2.796319
2.659391
2.537821
2.437534
2.363757
2.320487
2.310017
2.332684
2.386935
2.469711
2.576987
2.704304
2.847157
3.001222
3.162445
3.327039
3.491441
3.652265
3.806276
3.950393
4.081731
4.197684
4.296020
4.374992
4.433448
4.470909
4.487621
4.484553
4.463352
4.426246
4.375908
4.315283
4.247399
4.175169
4.101205
4.027650
3.956047
3.887257
3.821433
3.758060
3.696056
3.633938
3.570050
3.502820
3.431055
3.354224
3.272698
3.187911
3.102380
3.019553
2.943469
2.878249
2.827492
2.793725
2.778038
2.950692
2.949685
2.967108
3.000274
3.046176
3.102047
3.165680
3.235504
3.310464
3.389788
3.472730
3.558350
3.645397
3.732300
3.817263
3.898428
3.974055
4.042682
4.103238
4.155086
4.198015
4.232171
4.257977
4.276039
4.287078
4.291873
4.291231
4.285956
4.276798
4.264376
4.249058
4.230814
4.209090
4.182712
4.149893
4.108348
4.055528
3.988952
3.906587
3.807224
3.690795
3.558583
3.413312
3.259097
3.101286
2.946204
2.800811
2.672281
2.567495
2.492422
2.451472
2.446951
2.478807
2.544805
2.641049
2.762682
2.904504
3.061426
3.228704
3.402013
3.577415
3.751279
3.920189
4.080880
4.230223
4.365252
4.483254
4.581883
4.659300
4.714310
4.746464
4.756130
4.744497
4.713523
4.665823
4.604509
4.533000
4.454806
4.373317
4.291592
4.212171
4.136915
4.066892
4.002312
3.942531
3.886128
3.831070
3.774954
3.715324
3.650050
3.577724
3.498028
3.412009
3.322188
3.232445
3.147636
3.072960
3.013175
2.971822
2.950692
3.103252
3.096618
3.111557
3.145163
3.194042
3.255011
3.325505
3.403659
3.488143
3.577874
3.671704
3.768185
3.865475
3.961390
4.053577
4.139758
4.217962
4.286714
4.345127
4.392904
4.430245
4.457708
4.476053
4.486111
4.488708
4.484652
4.474771
4.459964
4.441218
4.419557
4.395901
4.370844
4.344404
4.315799
4.283337
4.244477
4.196069
4.134778
4.057591
3.962364
3.848277
3.716162
3.568649
3.410119
3.246502
3.084937
2.933341
2.799880
2.692339
2.617391
2.579830
2.581955
2.623320
2.700997
2.810249
2.945353
3.100351
3.269552
3.447807
3.630582
3.813889
3.994162
4.168107
4.332580
4.484534
4.621035
4.739341
4.837046
4.912250
4.963722
4.991043
4.994682
4.976007
4.937218
4.881216
4.811419
4.731554
4.645441
4.556779
4.468950
4.384829
4.306613
4.235675
4.172442
4.116337
4.065790
4.018355
3.970940
3.920161
3.862806
3.796361
3.719547
3.632755
3.538298
3.440371
3.344662
3.257615
3.185428
3.133022
3.103252
3.240237
3.225103
3.235373
3.268067
3.319454
3.385932
3.464538
3.553043
3.649740
3.753089
3.861351
3.972355
4.083444
4.191622
4.293834
4.387306
4.469844
4.540036
4.597313
4.641860
4.674426
4.696065
4.707880
4.710836
4.705696
4.693069
4.673562
4.647966
4.617384
4.583244
4.547148
4.510573
4.474463
4.438827
4.402450
4.362828
4.316392
4.258994
4.186579
4.095925
3.985291
3.854891
3.707109
3.546463
3.379343
3.213588
3.057943
2.921434
2.812638
2.738855
2.705246
2.714140
2.764772
2.853587
2.975032
3.122510
3.289257
3.468945
3.656021
3.845788
4.034318
4.218254
4.394579
4.560425
4.712954
4.849348
4.966901
5.063177
5.136227
5.184791
5.208474
5.207836
5.184394
5.140532
5.079332
5.004362
4.919460
4.828522
4.735327
4.643381
4.555774
4.475019
4.402886
4.340219
4.286777
4.241131
4.200674
4.161797
4.120238
4.071623
4.012139
3.939265
3.852429
3.753447
3.646621
3.538389
3.436498
3.348808
3.281955
3.240237
3.369030
3.342645
3.345927
3.376003
3.428895
3.500611
3.587787
3.687797
3.798501
3.917799
4.043217
4.171677
4.299516
4.422754
4.537511
4.640460
4.729199
4.802456
4.860097
4.902931
4.932378
4.950050
4.957379
4.955359
4.944490
4.924929
4.896792
4.860517
4.817139
4.768406
4.716639
4.664355
4.613710
4.565870
4.520495
4.475489
4.427132
4.370619
4.300893
4.213608
4.106012
3.977592
3.830376
3.668906
3.499898
3.331724
3.173761
3.035685
2.926684
2.854585
2.824925
2.840174
2.899397
2.998550
3.131316
3.290203
3.467566
3.656371
3.850628
4.045521
4.237281
4.422906
4.599815
4.765546
4.917567
5.053235
5.169889
5.265060
5.336734
5.383611
5.405319
5.402515
5.376866
5.330909
5.267832
5.191219
5.104813
5.012340
4.917391
4.823355
4.733357
4.650160
4.575997
4.512326
4.459544
4.416725
4.381459
4.349896
4.317057
4.277415
4.225727
4.157981
4.072318
3.969721
3.854303
3.733045
3.614936
3.509589
3.425593
3.369030
3.498703
3.458902
3.453057
3.478612
3.531460
3.607289
3.702369
3.813714
3.938755
4.074808
4.218595
4.366028
4.512319
4.652390
4.781459
4.895613
4.992252
5.070302
5.130147
5.173313
5.201962
5.218299
5.224044
5.220103
5.206529
5.182794
5.148278
5.102831
5.047224
4.983375
4.914246
4.843414
4.774372
4.709685
4.650219
4.594644
4.539425
4.479357
4.408546
4.321612
4.214824
4.086936
3.939595
3.777296
3.606961
3.437303
3.278077
3.139330
3.030629
2.960204
2.934004
2.954811
3.021750
3.130460
3.273931
3.443730
3.631225
3.828564
4.029266
4.228415
4.422499
4.609008
4.785934
4.951328
5.103013
5.238514
5.355177
5.450436
5.522158
5.568973
5.590533
5.587622
5.562092
5.516653
5.454577
5.379373
5.294534
5.203397
5.109108
5.014685
4.923079
4.837184
4.759708
4.692879
4.638027
4.595108
4.562318
4.535940
4.510536
4.479545
4.436251
4.374967
4.292255
4.187912
4.065504
3.932248
3.798162
3.674545
3.572028
3.498703
3.638211
3.583891
3.567367
3.586583
3.637448
3.715428
3.816522
3.937476
4.075386
4.227061
4.388469
4.554521
4.719292
4.876595
5.020727
5.147183
5.253172
5.337822
5.402048
5.448099
5.478875
5.497140
5.504834
5.502660
5.490076
5.465705
5.428014
5.376089
5.310259
5.232434
5.146048
5.055605
4.965877
4.880884
4.802870
4.731552
4.663913
4.594686
4.517439
4.425999
4.315841
4.185129
4.035210
3.870541
3.698170
3.526955
3.366743
3.227624
3.119254
3.050123
3.026636
3.052097
3.125956
3.243738
3.397807
3.578721
3.776727
3.983016
4.190542
4.394296
4.591109
4.779084
4.956899
5.123174
5.276076
5.413226
5.531861
5.629200
5.702892
5.751446
5.774543
5.773140
5.749351
5.706138
5.646893
5.575042
5.493752
5.405826
5.313771
5.220006
5.127098
5.037913
4.955574
4.883161
4.823153
4.776733
4.743114
4.719123
4.699209
4.676005
4.641390
4.587923
4.510366
4.407013
4.280506
4.137913
3.989951
3.849364
3.728732
3.638211
3.794334
3.725850
3.698083
3.709614
3.756493
3.834080
3.938233
4.065587
4.213092
4.377245
4.553440
4.735752
4.917251
5.090737
5.249655
5.388936
5.505574
5.598841
5.670085
5.722170
5.758614
5.782625
5.796256
5.799912
5.792378
5.771348
5.734301
5.679460
5.606573
5.517350
5.415461
5.306084
5.195047
5.087682
4.987603
4.895714
4.809805
4.724921
4.634507
4.531998
4.412435
4.273678
4.116978
3.946864
3.770482
3.596671
3.435075
3.295458
3.187233
3.118961
3.097524
3.126954
3.207295
3.334161
3.499350
3.692338
3.902103
4.118742
4.334561
4.544464
4.745697
4.937082
5.118050
5.287797
5.444754
5.586488
5.709949
5.811961
5.889819
5.941839
5.967730
5.968692
5.947216
5.906638
5.850590
5.782493
5.705218
5.620999
5.531607
5.438703
5.344274
5.250972
5.162207
5.081875
5.013712
4.960363
4.922409
4.897620
4.880728
4.863877
4.837747
4.793192
4.723081
4.623965
4.497216
4.349351
4.191358
4.037053
3.900686
3.794334
3.969838
3.889198
3.850946
3.854323
3.895592
3.970111
4.073739
4.203201
4.355564
4.527328
4.713646
4.908077
5.102973
5.290353
5.462962
5.615219
5.743857
5.848141
5.929638
5.991564
6.037810
6.071825
6.095641
6.109312
6.110954
6.097377
6.065098
6.011450
5.935488
5.838517
5.724154
5.597904
5.466306
5.335708
5.210925
5.094060
4.983914
4.876242
4.764867
4.643373
4.506865
4.353321
4.184214
4.004332
3.820965
3.642819
3.479048
3.338709
3.230593
3.163078
3.143485
3.176723
3.263669
3.400207
3.577623
3.784249
4.007672
4.236782
4.463173
4.681675
4.890015
5.087808
5.275275
5.452129
5.616922
5.766955
5.898647
6.008209
6.092412
6.149292
6.178587
6.181824
6.162006
6.123020
6.068920
6.003295
5.928863
5.847383
5.759896
5.667233
5.570647
5.472372
5.375899
5.285796
5.207006
5.143726
5.098120
5.069239
5.052493
5.039934
5.021374
4.986181
4.925387
4.833697
4.710955
4.562739
4.399854
4.236716
4.088818
3.969838
4.162283
4.073096
4.026587
4.022552
4.057445
4.126666
4.226194
4.353051
4.504738
4.678161
4.868696
5.069860
5.273724
5.471879
5.656601
5.821882
5.964108
6.082302
6.177894
6.254054
6.314666
6.363141
6.401355
6.429023
6.443716
6.441523
6.418129
6.370005
6.295408
6.195002
6.072002
5.931835
5.781317
5.627435
5.475932
5.330029
5.189703
5.051804
4.911102
4.761953
4.600120
4.424193
4.236245
4.041576
3.847731
3.663221
3.496482
3.355484
3.247970
3.181807
3.164615
3.202240
3.296554
3.443859
3.634984
3.857091
4.096314
4.340277
4.579842
4.809792
5.028398
5.236120
5.433962
5.622051
5.798863
5.961174
6.104601
6.224487
6.316902
6.379501
6.412055
6.416501
6.396512
6.356728
6.301866
6.235939
6.161755
6.080796
5.993493
5.899854
5.800291
5.696414
5.591535
5.490628
5.399640
5.324221
5.268174
5.232038
5.212255
5.201224
5.188348
5.161893
5.111303
5.029497
4.914660
4.771122
4.609067
4.442997
4.289130
4.162283
4.363806
4.270949
4.219800
4.210469
4.239464
4.302182
4.394768
4.514718
4.660274
4.829202
5.017651
5.219685
5.427646
5.633152
5.828314
6.006796
6.164526
6.299967
6.413945
6.509057
6.588701
6.655924
6.712332
6.757404
6.788414
6.801013
6.790264
6.751841
6.683091
6.583759
6.456271
6.305515
6.138121
5.961296
5.781416
5.602720
5.426502
5.251113
5.072844
4.887474
4.692019
4.486176
4.272986
4.058528
3.850766
3.658044
3.487920
3.346932
3.241332
3.178053
3.164752
3.208143
3.311161
3.470623
3.676973
3.916244
4.173143
4.434048
4.689120
4.933147
5.165002
5.386028
5.597971
5.801243
5.994021
6.172284
6.330562
6.463087
6.565035
6.633586
6.668538
6.672321
6.649435
6.605491
6.546140
6.476123
6.398654
6.315211
6.225814
6.129726
6.026456
5.916804
5.803605
5.691890
5.588255
5.499524
5.430998
5.384758
5.358537
5.345535
5.335294
5.315528
5.274534
5.203695
5.099560
4.965018
4.809256
4.646364
4.492742
4.363806
4.561986
4.471049
4.419937
4.408730
4.433743
4.490216
4.574413
4.684386
4.819379
4.978445
5.159076
5.356515
5.563993
5.773675