# vtk DataFile Version 3.0
vtk output
ASCII
DATASET POLYDATA
POINTS 100 float
-12.9392 -3.32322 23.9915 -12.9453 -3.34037 23.9809 -12.9631 -3.3876 23.9465 
-12.9926 -3.46533 23.8909 -13.0341 -3.57425 23.8178 -13.0875 -3.71512 23.7317 
-13.1522 -3.88864 23.6367 -13.2271 -4.09522 23.5362 -13.3105 -4.33476 23.4321 
-13.4002 -4.6065 23.3251 -13.4934 -4.90886 23.2139 -13.5875 -5.23936 23.0962 
-13.68 -5.59468 22.9692 -13.7687 -5.97074 22.8296 -13.8523 -6.36289 22.675 
-13.9301 -6.76616 22.5035 -14.002 -7.17559 22.3145 -14.0684 -7.58648 22.1084 
-14.1299 -7.99469 21.8867 -14.1872 -8.39686 21.6511 -14.2407 -8.79055 21.4039 
-14.2906 -9.1743 21.1471 -14.3371 -9.5477 20.8823 -14.38 -9.91129 20.6109 
-14.4196 -10.2665 20.3343 -14.4566 -10.6155 20.0535 -14.4923 -10.9612 19.7702 
-14.5285 -11.3071 19.4863 -14.5679 -11.6569 19.2043 -14.6131 -12.0145 18.9275 
-14.6669 -12.3837 18.6588 -14.7317 -12.7681 18.4013 -14.8088 -13.1703 18.1575 
-14.8988 -13.592 17.9284 -15.001 -14.0336 17.7142 -15.114 -14.4942 17.5132 
-15.2358 -14.9714 17.3229 -15.3642 -15.4619 17.1395 -15.4977 -15.9616 16.9593 
-15.6354 -16.4667 16.7785 -15.7775 -16.9743 16.5943 -15.9251 -17.4829 16.4052 
-16.0797 -17.9935 16.211 -16.2429 -18.5097 16.0127 -16.4153 -19.0374 15.8127 
-16.5959 -19.5848 15.6137 -16.7815 -20.1614 15.4184 -16.9663 -20.7766 15.2292 
-17.1422 -21.4382 15.0474 -17.2992 -22.1517 14.8731 -17.4264 -22.9187 14.7055 
-17.5128 -23.7361 14.5423 -17.549 -24.5967 14.3811 -17.5284 -25.4889 14.2186 
-17.4475 -26.3986 14.0519 -17.3069 -27.3101 13.8783 -17.1113 -28.2079 13.6955 
-16.8681 -29.0789 13.5015 -16.5876 -29.9132 13.2948 -16.2808 -30.7049 13.074 
-15.9584 -31.4527 12.8379 -15.6297 -32.1594 12.5851 -15.3015 -32.8305 12.3146 
-14.9778 -33.4734 12.0253 -14.6596 -34.0954 11.7169 -14.3454 -34.7025 11.3899 
-14.0319 -35.2986 11.0459 -13.7152 -35.8849 10.6876 -13.3914 -36.4596 10.319 
-13.0577 -37.0191 9.94495 -12.7129 -37.5584 9.57073 -12.3577 -38.0727 9.20163 
-11.9944 -38.5579 8.84224 -11.6269 -39.0119 8.49598 -11.2595 -39.4346 8.16475 
-10.897 -39.828 7.84874 -10.5434 -40.1957 7.5466 -10.2019 -40.542 7.25572 
-9.87455 -40.8707 6.97282 -9.56195 -41.1851 6.69449 -9.26381 -41.4863 6.4178 
-8.9791 -41.7741 6.14082 -8.70653 -42.0465 5.86287 -8.44495 -42.3004 5.58464 
-8.19367 -42.5326 5.30804 -7.95271 -42.7405 5.03591 -7.72277 -42.923 4.77162 
-7.50521 -43.0804 4.51863 -7.30178 -43.2149 4.28013 -7.11439 -43.3303 4.05876 
-6.94481 -43.4309 3.85645 -6.79441 -43.5209 3.67445 -6.66401 -43.6039 3.51341 
-6.55379 -43.6818 3.37356 -6.46337 -43.7547 3.25489 -6.39189 -43.821 3.15729 
-6.33821 -43.8777 3.08067 -6.30115 -43.9214 3.02503 -6.27968 -43.9488 2.99039 
-6.2731 -43.9575 2.97684 
LINES 1 101
100 0 1 2 3 4 5 6 7 8 9 10 11 12 13 14 15 16 17 18 19 20 21 22 23 24 25 26 27 28 29 30 31 32 33 34 35 36 37 38 39 40 41 42 43 44 45 46 47 48 49 50 51 52 53 54 55 56 57 58 59 60 61 62 63 64 65 66 67 68 69 70 71 72 73 74 75 76 77 78 79 80 81 82 83 84 85 86 87 88 89 90 91 92 93 94 95 96 97 98 99 

POINT_DATA 100
FIELD FieldData 7
Theta 100 1 float
0 0.0317333 0.0634665 0.0951998 0.126933 0.158666 0.1904 0.222133 0.253866 
0.285599 0.317333 0.349066 0.380799 0.412532 0.444266 0.475999 0.507732 0.539465 
0.571199 0.602932 0.634665 0.666398 0.698132 0.729865 0.761598 0.793332 0.825065 
0.856798 0.888531 0.920265 0.951998 0.983731 1.01546 1.0472 1.07893 1.11066 
1.1424 1.17413 1.20586 1.2376 1.26933 1.30106 1.3328 1.36453 1.39626 
1.428 1.45973 1.49146 1.5232 1.55493 1.58666 1.6184 1.65013 1.68186 
1.7136 1.74533 1.77706 1.8088 1.84053 1.87226 1.904 1.93573 1.96746 
1.9992 2.03093 2.06266 2.0944 2.12613 2.15786 2.18959 2.22133 2.25306 
2.28479 2.31653 2.34826 2.37999 2.41173 2.44346 2.47519 2.50693 2.53866 
2.57039 2.60213 2.63386 2.66559 2.69733 2.72906 2.76079 2.79253 2.82426 
2.85599 2.88773 2.91946 2.95119 2.98293 3.01466 3.04639 3.07813 3.10986 
3.14159 
Theta_Scaled 100 1 float
0 1.0101 2.0202 3.0303 4.0404 5.05051 6.06061 7.07071 8.08081 
9.09091 10.101 11.1111 12.1212 13.1313 14.1414 15.1515 16.1616 17.1717 
18.1818 19.1919 20.202 21.2121 22.2222 23.2323 24.2424 25.2525 26.2626 
27.2727 28.2828 29.2929 30.303 31.3131 32.3232 33.3333 34.3434 35.3535 
36.3636 37.3737 38.3838 39.3939 40.404 41.4141 42.4242 43.4343 44.4444 
45.4545 46.4646 47.4747 48.4848 49.4949 50.5051 51.5152 52.5253 53.5354 
54.5455 55.5556 56.5657 57.5758 58.5859 59.596 60.6061 61.6162 62.6263 
63.6364 64.6465 65.6566 66.6667 67.6768 68.6869 69.697 70.7071 71.7172 
72.7273 73.7374 74.7475 75.7576 76.7677 77.7778 78.7879 79.798 80.8081 
81.8182 82.8283 83.8384 84.8485 85.8586 86.8687 87.8788 88.8889 89.899 
90.9091 91.9192 92.9293 93.9394 94.9495 95.9596 96.9697 97.9798 98.9899 
100 
Radius 100 1 float
4.42042e-14 0.387178 0.770561 1.14637 1.5109 1.86056 2.19198 2.50226 2.78929 
3.05224 3.2918 3.51033 3.71156 3.90002 4.08029 4.25641 4.43155 4.60795 
4.78703 4.96936 5.15456 5.34121 5.52691 5.70853 5.88264 6.04601 6.19604 
6.33094 6.44984 6.55268 6.64009 6.71317 6.77326 6.8218 6.86009 6.88908 
6.90912 6.91979 6.91978 6.90692 6.87844 6.83129 6.76263 6.67024 6.55291 
6.41069 6.24507 6.05912 5.85759 5.64691 5.43515 5.23179 5.04722 4.89171 
4.77381 4.69838 4.66486 4.66674 4.69271 4.72898 4.76194 4.78048 4.77757 
4.75103 4.70361 4.64242 4.57771 4.52096 4.48263 4.47003 4.48591 4.52825 
4.59103 4.66573 4.74286 4.81327 4.86918 4.90498 4.91759 4.9066 4.87375 
4.82196 4.75404 4.67134 4.57298 4.45561 4.31408 4.14268 3.93652 3.69278 
3.41138 3.0951 2.74908 2.37997 1.99481 1.60004 1.2007 0.800101 0.399793 
1.21598e-13 
Radius_Scaled 100 1 float
0 5.59523 11.1356 16.5666 21.8345 26.8876 31.677 36.1608 40.3089 
44.1088 47.5707 50.7288 53.6369 56.3604 58.9655 61.5107 64.0416 66.5909 
69.1789 71.8137 74.49 77.1874 79.8711 82.4957 85.0117 87.3728 89.5409 
91.4904 93.2086 94.6948 95.958 97.014 97.8824 98.5839 99.1372 99.5561 
99.8458 100 99.9998 99.814 99.4024 98.721 97.7288 96.3937 94.6981 
92.6428 90.2494 87.5622 84.6498 81.6052 78.545 75.6062 72.9389 70.6915 
68.9878 67.8977 67.4133 67.4405 67.8158 68.3399 68.8162 69.0842 69.0422 
68.6586 67.9732 67.089 66.1539 65.3338 64.7798 64.5977 64.8273 65.4391 
66.3464 67.4259 68.5405 69.558 70.3661 70.8833 71.0655 70.9067 70.432 
69.6837 68.702 67.507 66.0855 64.3893 62.3441 59.8671 56.8878 53.3654 
49.2988 44.7282 39.7278 34.3937 28.8276 23.1226 17.3517 11.5625 5.77753 
1.11845e-12 
Surface 100 1 float
0 0.425565 1.68642 3.73591 6.49899 9.87545 13.744 17.9681 22.4055 
26.9232 31.4169 35.8285 40.1555 44.4436 48.7663 53.1996 57.8049 62.6225 
67.6707 72.9444 78.4113 84.0109 89.658 95.251 100.684 105.857 110.685 
115.102 119.067 122.561 125.583 128.152 130.299 132.07 133.525 134.729 
135.736 136.561 137.151 137.373 137.014 135.81 133.506 129.917 124.991 
118.847 111.769 104.151 96.4224 88.9633 82.0646 75.9265 70.6826 66.4281 
63.2354 61.1456 60.1324 60.0571 60.6513 61.5504 62.3657 62.7677 62.5534 
61.68 60.261 58.5322 56.803 55.3986 54.596 54.5647 55.3366 56.8154 
58.8157 61.1066 63.4461 65.603 67.3702 68.5816 69.1357 69.0141 68.2767 
67.0288 65.3707 63.3499 60.936 58.0306 54.5121 50.2951 45.3806 39.8762 
33.9825 27.9579 22.0749 16.5846 11.6939 7.55647 4.27402 1.90486 0.476779 
1.59476e-13 
Surface_Scaled 100 1 float
0 0.309787 1.22762 2.71953 4.7309 7.18877 10.0049 13.0798 16.3099 
19.5986 22.8697 26.0812 29.2309 32.3525 35.4991 38.7263 42.0787 45.5857 
49.2605 53.0994 57.079 61.1552 65.266 69.3374 73.2923 77.0581 80.5724 
83.788 86.6742 89.2172 91.4176 93.2877 94.8505 96.1394 97.1984 98.0751 
98.8084 99.4087 99.8384 100 99.7382 98.8622 97.185 94.5721 90.9864 
86.5142 81.3613 75.8161 70.1901 64.7603 59.7384 55.2702 51.453 48.3559 
46.0318 44.5106 43.773 43.7182 44.1508 44.8053 45.3987 45.6914 45.5354 
44.8996 43.8666 42.6082 41.3494 40.3271 39.7428 39.7201 40.2819 41.3584 
42.8145 44.4822 46.1852 47.7553 49.0417 49.9236 50.3269 50.2384 49.7016 
48.7932 47.5862 46.1152 44.358 42.2431 39.6817 36.612 33.0346 29.0276 
24.7374 20.3518 16.0693 12.0726 8.51248 5.50069 3.11125 1.38663 0.347068 
1.1609e-13 
Volume 1 1 float
3844.71 
