# vtk DataFile Version 2.0
Cube example
ASCII

DATASET POLYDATA
POINTS 8 float
0.0 0.0 0.0
1.0 0.0 0.0
1.0 1.0 0.0
0.0 1.0 0.0
0.0 0.0 1.0
1.0 0.0 1.0
1.0 1.0 1.0
0.0 1.0 1.0

POLYGONS 3 12
3 0 1 2 
3 4 5 6
3 7 4 2

POINT_DATA 8
SCALARS sample_scalars float 1
LOOKUP_TABLE default
0.0
1.0
2.0
3.0
4.0
5.0
6.0
1000.0
